<VTKFile type="RectilinearGrid" version="0.1" byte_order="LittleEndian">
<RectilinearGrid WholeExtent=”1 9 1 9 1 9” >
 <Piece Extent=”1 9 1 9 1 9” >
<Coordinates>
<DataArray type="Float32" NumberOfComponents=" 1" format="ascii">
0.000000e+00
1.000000e+00
2.000000e+00
3.000000e+00
4.000000e+00
5.000000e+00
6.000000e+00
7.000000e+00
8.000000e+00
</DataArray>
<DataArray type="Float32" NumberOfComponents="1" format="ascii">
0.000000e+00
1.000000e+00
2.000000e+00
3.000000e+00
4.000000e+00
5.000000e+00
6.000000e+00
7.000000e+00
8.000000e+00
</DataArray>
<DataArray type="Float32" NumberOfComponents="1" format="ascii">
0.000000e+00
1.000000e+00
2.000000e+00
3.000000e+00
4.000000e+00
5.000000e+00
6.000000e+00
7.000000e+00
8.000000e+00
</DataArray>
</Coordinates>
<CellData>
<DataArray type="Float32" NumberOfComponents="1" Name="density" format="ascii">
2.913045e-01
2.465834e-01
1.710101e-01
1.326133e-01
1.413845e-01
1.860176e-01
2.529647e-01
2.922839e-01
2.913823e-01
2.468761e-01
1.726657e-01
1.364749e-01
1.445237e-01
1.862807e-01
2.520586e-01
2.921262e-01
2.916128e-01
2.482761e-01
1.760218e-01
1.410623e-01
1.480656e-01
1.874653e-01
2.514748e-01
2.919077e-01
2.919998e-01
2.498578e-01
1.780244e-01
1.430326e-01
1.494364e-01
1.880510e-01
2.515696e-01
2.919345e-01
2.919998e-01
2.498578e-01
1.780244e-01
1.430326e-01
1.494364e-01
1.880510e-01
2.515696e-01
2.919345e-01
2.916128e-01
2.482761e-01
1.760218e-01
1.410623e-01
1.480656e-01
1.874653e-01
2.514748e-01
2.919077e-01
2.913823e-01
2.468761e-01
1.726657e-01
1.364749e-01
1.445237e-01
1.862807e-01
2.520586e-01
2.921262e-01
2.913045e-01
2.465834e-01
1.710101e-01
1.326133e-01
1.413845e-01
1.860176e-01
2.529647e-01
2.922839e-01
2.819666e-01
2.336543e-01
1.715704e-01
1.482693e-01
1.606744e-01
1.944617e-01
2.437830e-01
2.800543e-01
2.858024e-01
2.383244e-01
1.765889e-01
1.527446e-01
1.639660e-01
1.965464e-01
2.451517e-01
2.820415e-01
2.880332e-01
2.428580e-01
1.818034e-01
1.569929e-01
1.667320e-01
1.981006e-01
2.458083e-01
2.823171e-01
2.889120e-01
2.450121e-01
1.840977e-01
1.586701e-01
1.676479e-01
1.984370e-01
2.457735e-01
2.821690e-01
2.889120e-01
2.450121e-01
1.840977e-01
1.586701e-01
1.676479e-01
1.984370e-01
2.457735e-01
2.821690e-01
2.880332e-01
2.428580e-01
1.818034e-01
1.569929e-01
1.667320e-01
1.981006e-01
2.458083e-01
2.823171e-01
2.858024e-01
2.383244e-01
1.765889e-01
1.527446e-01
1.639660e-01
1.965464e-01
2.451517e-01
2.820415e-01
2.819666e-01
2.336543e-01
1.715704e-01
1.482693e-01
1.606744e-01
1.944617e-01
2.437830e-01
2.800543e-01
2.526234e-01
2.073397e-01
1.680700e-01
1.661874e-01
1.829560e-01
2.016490e-01
2.205897e-01
2.365072e-01
2.627190e-01
2.160836e-01
1.731728e-01
1.679178e-01
1.832261e-01
2.022808e-01
2.224033e-01
2.390816e-01
2.705408e-01
2.238656e-01
1.782168e-01
1.694768e-01
1.830396e-01
2.021353e-01
2.229590e-01
2.399855e-01
2.734377e-01
2.269692e-01
1.803042e-01
1.700500e-01
1.827669e-01
2.017220e-01
2.225713e-01
2.395468e-01
2.734377e-01
2.269692e-01
1.803042e-01
1.700500e-01
1.827669e-01
2.017220e-01
2.225713e-01
2.395468e-01
2.705408e-01
2.238656e-01
1.782168e-01
1.694768e-01
1.830396e-01
2.021354e-01
2.229591e-01
2.399855e-01
2.627190e-01
2.160836e-01
1.731728e-01
1.679178e-01
1.832261e-01
2.022808e-01
2.224033e-01
2.390816e-01
2.526234e-01
2.073397e-01
1.680701e-01
1.661874e-01
1.829560e-01
2.016490e-01
2.205897e-01
2.365072e-01
2.223396e-01
1.818427e-01
1.642959e-01
1.813087e-01
1.990256e-01
2.026513e-01
1.961305e-01
1.904586e-01
2.346425e-01
1.896589e-01
1.651217e-01
1.778452e-01
1.945478e-01
1.992734e-01
1.949397e-01
1.911034e-01
2.443904e-01
1.972088e-01
1.666308e-01
1.745633e-01
1.899637e-01
1.956971e-01
1.934052e-01
1.911714e-01
2.478048e-01
2.001354e-01
1.672298e-01
1.730358e-01
1.878254e-01
1.939784e-01
1.924390e-01
1.906903e-01
2.478048e-01
2.001354e-01
1.672298e-01
1.730358e-01
1.878254e-01
1.939785e-01
1.924390e-01
1.906903e-01
2.443904e-01
1.972088e-01
1.666308e-01
1.745633e-01
1.899637e-01
1.956971e-01
1.934052e-01
1.911714e-01
2.346425e-01
1.896589e-01
1.651217e-01
1.778452e-01
1.945478e-01
1.992734e-01
1.949397e-01
1.911034e-01
2.223396e-01
1.818427e-01
1.642959e-01
1.813087e-01
1.990256e-01
2.026513e-01
1.961305e-01
1.904586e-01
2.079539e-01
1.717052e-01
1.741065e-01
2.001235e-01
2.097498e-01
1.968258e-01
1.701349e-01
1.483282e-01
2.182686e-01
1.736344e-01
1.674493e-01
1.905887e-01
2.007199e-01
1.896292e-01
1.656319e-01
1.464577e-01
2.251367e-01
1.764074e-01
1.620824e-01
1.813067e-01
1.916773e-01
1.826006e-01
1.615766e-01
1.452230e-01
2.263012e-01
1.769810e-01
1.596381e-01
1.770760e-01
1.875469e-01
1.794716e-01
1.598155e-01
1.446277e-01
2.263012e-01
1.769810e-01
1.596381e-01
1.770760e-01
1.875469e-01
1.794717e-01
1.598155e-01
1.446277e-01
2.251367e-01
1.764074e-01
1.620823e-01
1.813067e-01
1.916773e-01
1.826006e-01
1.615766e-01
1.452231e-01
2.182686e-01
1.736344e-01
1.674493e-01
1.905887e-01
2.007199e-01
1.896292e-01
1.656319e-01
1.464577e-01
2.079539e-01
1.717052e-01
1.741066e-01
2.001235e-01
2.097498e-01
1.968257e-01
1.701349e-01
1.483282e-01
2.299855e-01
2.056138e-01
2.152380e-01
2.264407e-01
2.129700e-01
1.806892e-01
1.400627e-01
1.139198e-01
2.334629e-01
1.988636e-01
2.002330e-01
2.115096e-01
2.008477e-01
1.714586e-01
1.347318e-01
1.117412e-01
2.332492e-01
1.921180e-01
1.857539e-01
1.967539e-01
1.888635e-01
1.626259e-01
1.301071e-01
1.106692e-01
2.306642e-01
1.882489e-01
1.794455e-01
1.901634e-01
1.834397e-01
1.587574e-01
1.281838e-01
1.102442e-01
2.306642e-01
1.882489e-01
1.794455e-01
1.901634e-01
1.834397e-01
1.587574e-01
1.281838e-01
1.102442e-01
2.332492e-01
1.921180e-01
1.857540e-01
1.967539e-01
1.888635e-01
1.626259e-01
1.301071e-01
1.106692e-01
2.334629e-01
1.988636e-01
2.002330e-01
2.115096e-01
2.008477e-01
1.714586e-01
1.347318e-01
1.117412e-01
2.299855e-01
2.056137e-01
2.152380e-01
2.264407e-01
2.129700e-01
1.806892e-01
1.400627e-01
1.139198e-01
2.867422e-01
2.817206e-01
2.779987e-01
2.539275e-01
2.043529e-01
1.524128e-01
1.139324e-01
1.010846e-01
2.882117e-01
2.775332e-01
2.651975e-01
2.379905e-01
1.918164e-01
1.439658e-01
1.105507e-01
1.006191e-01
2.864753e-01
2.693950e-01
2.490279e-01
2.212029e-01
1.799130e-01
1.365165e-01
1.084401e-01
1.004810e-01
2.847514e-01
2.645438e-01
2.413824e-01
2.135951e-01
1.745122e-01
1.333061e-01
1.076495e-01
1.004432e-01
2.847514e-01
2.645438e-01
2.413824e-01
2.135951e-01
1.745122e-01
1.333061e-01
1.076495e-01
1.004432e-01
2.864753e-01
2.693950e-01
2.490279e-01
2.212029e-01
1.799129e-01
1.365165e-01
1.084401e-01
1.004810e-01
2.882117e-01
2.775332e-01
2.651975e-01
2.379905e-01
1.918164e-01
1.439658e-01
1.105507e-01
1.006191e-01
2.867422e-01
2.817206e-01
2.779987e-01
2.539276e-01
2.043529e-01
1.524128e-01
1.139324e-01
1.010846e-01
3.000000e-01
3.000000e-01
2.955984e-01
2.630768e-01
1.913922e-01
1.295156e-01
1.034949e-01
1.000379e-01
3.000000e-01
2.993718e-01
2.902888e-01
2.512527e-01
1.804898e-01
1.223835e-01
1.018278e-01
1.000000e-01
2.997331e-01
2.974425e-01
2.839270e-01
2.382752e-01
1.707159e-01
1.171191e-01
1.009598e-01
1.000000e-01
2.995785e-01
2.963076e-01
2.811068e-01
2.319433e-01
1.660936e-01
1.148928e-01
1.006344e-01
1.000000e-01
2.995785e-01
2.963076e-01
2.811069e-01
2.319433e-01
1.660935e-01
1.148928e-01
1.006344e-01
1.000000e-01
2.997331e-01
2.974425e-01
2.839270e-01
2.382752e-01
1.707159e-01
1.171191e-01
1.009598e-01
1.000000e-01
3.000000e-01
2.993718e-01
2.902888e-01
2.512527e-01
1.804898e-01
1.223835e-01
1.018278e-01
1.000000e-01
3.000000e-01
3.000000e-01
2.955984e-01
2.630768e-01
1.913922e-01
1.295156e-01
1.034949e-01
1.000379e-01
</DataArray>
</CellData>
</Piece>
</RectilinearGrid>
</VTKFile>
